ITEM: TIMESTEP
0
ITEM: NUMBER OF ATOMS
24000
ITEM: BOX BOUNDS pp pp pp
0.0000000000000000e+00 6.2000000000000000e+01
0.0000000000000000e+00 6.2000000000000000e+01
0.0000000000000000e+00 6.2000000000000000e+01
ITEM: ATOMS id type xs ys zs
1 2 0.025 0.025 0.0241935
2 1 0.025 0.0372089 0.0336433
3 1 0.025 0.0127911 0.0336433
1201 2 0.025 0.025 0.0741935
1202 1 0.025 0.0372089 0.0836433
1203 1 0.025 0.0127911 0.0836433
61 2 0.025 0.075 0.0241935
62 1 0.025 0.0872089 0.0336433
63 1 0.025 0.0627911 0.0336433
1261 2 0.025 0.075 0.0741935
1262 1 0.025 0.0872089 0.0836433
1263 1 0.025 0.0627911 0.0836433
4 2 0.075 0.025 0.0241935
5 1 0.075 0.0372089 0.0336433
6 1 0.075 0.0127911 0.0336433
1204 2 0.075 0.025 0.0741935
1205 1 0.075 0.0372089 0.0836433
1206 1 0.075 0.0127911 0.0836433
64 2 0.075 0.075 0.0241935
65 1 0.075 0.0872089 0.0336433
66 1 0.075 0.0627911 0.0336433
1264 2 0.075 0.075 0.0741935
1265 1 0.075 0.0872089 0.0836433
1266 1 0.075 0.0627911 0.0836433
7 2 0.125 0.025 0.0241935
8 1 0.125 0.0372089 0.0336433
9 1 0.125 0.0127911 0.0336433
1207 2 0.125 0.025 0.0741935
1208 1 0.125 0.0372089 0.0836433
1209 1 0.125 0.0127911 0.0836433
67 2 0.125 0.075 0.0241935
68 1 0.125 0.0872089 0.0336433
69 1 0.125 0.0627911 0.0336433
1267 2 0.125 0.075 0.0741935
1268 1 0.125 0.0872089 0.0836433
1269 1 0.125 0.0627911 0.0836433
10 2 0.175 0.025 0.0241935
11 1 0.175 0.0372089 0.0336433
12 1 0.175 0.0127911 0.0336433
1210 2 0.175 0.025 0.0741935
1211 1 0.175 0.0372089 0.0836433
1212 1 0.175 0.0127911 0.0836433
70 2 0.175 0.075 0.0241935
71 1 0.175 0.0872089 0.0336433
72 1 0.175 0.0627911 0.0336433
1270 2 0.175 0.075 0.0741935
1271 1 0.175 0.0872089 0.0836433
1272 1 0.175 0.0627911 0.0836433
13 2 0.225 0.025 0.0241935
14 1 0.225 0.0372089 0.0336433
15 1 0.225 0.0127911 0.0336433
1213 2 0.225 0.025 0.0741935
1214 1 0.225 0.0372089 0.0836433
1215 1 0.225 0.0127911 0.0836433
73 2 0.225 0.075 0.0241935
74 1 0.225 0.0872089 0.0336433
75 1 0.225 0.0627911 0.0336433
1273 2 0.225 0.075 0.0741935
1274 1 0.225 0.0872089 0.0836433
1275 1 0.225 0.0627911 0.0836433
16 2 0.275 0.025 0.0241935
17 1 0.275 0.0372089 0.0336433
18 1 0.275 0.0127911 0.0336433
1216 2 0.275 0.025 0.0741935
1217 1 0.275 0.0372089 0.0836433
1218 1 0.275 0.0127911 0.0836433
76 2 0.275 0.075 0.0241935
77 1 0.275 0.0872089 0.0336433
78 1 0.275 0.0627911 0.0336433
1276 2 0.275 0.075 0.0741935
1277 1 0.275 0.0872089 0.0836433
1278 1 0.275 0.0627911 0.0836433
19 2 0.325 0.025 0.0241935
20 1 0.325 0.0372089 0.0336433
21 1 0.325 0.0127911 0.0336433
1219 2 0.325 0.025 0.0741935
1220 1 0.325 0.0372089 0.0836433
1221 1 0.325 0.0127911 0.0836433
79 2 0.325 0.075 0.0241935
80 1 0.325 0.0872089 0.0336433
81 1 0.325 0.0627911 0.0336433
1279 2 0.325 0.075 0.0741935
1280 1 0.325 0.0872089 0.0836433
1281 1 0.325 0.0627911 0.0836433
22 2 0.375 0.025 0.0241935
23 1 0.375 0.0372089 0.0336433
24 1 0.375 0.0127911 0.0336433
1222 2 0.375 0.025 0.0741935
1223 1 0.375 0.0372089 0.0836433
1224 1 0.375 0.0127911 0.0836433
82 2 0.375 0.075 0.0241935
83 1 0.375 0.0872089 0.0336433
84 1 0.375 0.0627911 0.0336433
1282 2 0.375 0.075 0.0741935
1283 1 0.375 0.0872089 0.0836433
1284 1 0.375 0.0627911 0.0836433
25 2 0.425 0.025 0.0241935
26 1 0.425 0.0372089 0.0336433
27 1 0.425 0.0127911 0.0336433
1225 2 0.425 0.025 0.0741935
1226 1 0.425 0.0372089 0.0836433
1227 1 0.425 0.0127911 0.0836433
85 2 0.425 0.075 0.0241935
86 1 0.425 0.0872089 0.0336433
87 1 0.425 0.0627911 0.0336433
1285 2 0.425 0.075 0.0741935
1286 1 0.425 0.0872089 0.0836433
1287 1 0.425 0.0627911 0.0836433
28 2 0.475 0.025 0.0241935
29 1 0.475 0.0372089 0.0336433
30 1 0.475 0.0127911 0.0336433
1228 2 0.475 0.025 0.0741935
1229 1 0.475 0.0372089 0.0836433
1230 1 0.475 0.0127911 0.0836433
88 2 0.475 0.075 0.0241935
89 1 0.475 0.0872089 0.0336433
90 1 0.475 0.0627911 0.0336433
1288 2 0.475 0.075 0.0741935
1289 1 0.475 0.0872089 0.0836433
1290 1 0.475 0.0627911 0.0836433
31 2 0.525 0.025 0.0241935
32 1 0.525 0.0372089 0.0336433
33 1 0.525 0.0127911 0.0336433
1231 2 0.525 0.025 0.0741935
1232 1 0.525 0.0372089 0.0836433
1233 1 0.525 0.0127911 0.0836433
91 2 0.525 0.075 0.0241935
92 1 0.525 0.0872089 0.0336433
93 1 0.525 0.0627911 0.0336433
1291 2 0.525 0.075 0.0741935
1292 1 0.525 0.0872089 0.0836433
1293 1 0.525 0.0627911 0.0836433
34 2 0.575 0.025 0.0241935
35 1 0.575 0.0372089 0.0336433
36 1 0.575 0.0127911 0.0336433
1234 2 0.575 0.025 0.0741935
1235 1 0.575 0.0372089 0.0836433
1236 1 0.575 0.0127911 0.0836433
94 2 0.575 0.075 0.0241935
95 1 0.575 0.0872089 0.0336433
96 1 0.575 0.0627911 0.0336433
1294 2 0.575 0.075 0.0741935
1295 1 0.575 0.0872089 0.0836433
1296 1 0.575 0.0627911 0.0836433
37 2 0.625 0.025 0.0241935
38 1 0.625 0.0372089 0.0336433
39 1 0.625 0.0127911 0.0336433
1237 2 0.625 0.025 0.0741935
1238 1 0.625 0.0372089 0.0836433
1239 1 0.625 0.0127911 0.0836433
97 2 0.625 0.075 0.0241935
98 1 0.625 0.0872089 0.0336433
99 1 0.625 0.0627911 0.0336433
1297 2 0.625 0.075 0.0741935
1298 1 0.625 0.0872089 0.0836433
1299 1 0.625 0.0627911 0.0836433
40 2 0.675 0.025 0.0241935
41 1 0.675 0.0372089 0.0336433
42 1 0.675 0.0127911 0.0336433
1240 2 0.675 0.025 0.0741935
1241 1 0.675 0.0372089 0.0836433
1242 1 0.675 0.0127911 0.0836433
100 2 0.675 0.075 0.0241935
101 1 0.675 0.0872089 0.0336433
102 1 0.675 0.0627911 0.0336433
1300 2 0.675 0.075 0.0741935
1301 1 0.675 0.0872089 0.0836433
1302 1 0.675 0.0627911 0.0836433
43 2 0.725 0.025 0.0241935
44 1 0.725 0.0372089 0.0336433
45 1 0.725 0.0127911 0.0336433
1243 2 0.725 0.025 0.0741935
1244 1 0.725 0.0372089 0.0836433
1245 1 0.725 0.0127911 0.0836433
103 2 0.725 0.075 0.0241935
104 1 0.725 0.0872089 0.0336433
105 1 0.725 0.0627911 0.0336433
1303 2 0.725 0.075 0.0741935
1304 1 0.725 0.0872089 0.0836433
1305 1 0.725 0.0627911 0.0836433
46 2 0.775 0.025 0.0241935
47 1 0.775 0.0372089 0.0336433
48 1 0.775 0.0127911 0.0336433
1246 2 0.775 0.025 0.0741935
1247 1 0.775 0.0372089 0.0836433
1248 1 0.775 0.0127911 0.0836433
106 2 0.775 0.075 0.0241935
107 1 0.775 0.0872089 0.0336433
108 1 0.775 0.0627911 0.0336433
1306 2 0.775 0.075 0.0741935
1307 1 0.775 0.0872089 0.0836433
1308 1 0.775 0.0627911 0.0836433
49 2 0.825 0.025 0.0241935
50 1 0.825 0.0372089 0.0336433
51 1 0.825 0.0127911 0.0336433
1249 2 0.825 0.025 0.0741935
1250 1 0.825 0.0372089 0.0836433
1251 1 0.825 0.0127911 0.0836433
109 2 0.825 0.075 0.0241935
110 1 0.825 0.0872089 0.0336433
111 1 0.825 0.0627911 0.0336433
1309 2 0.825 0.075 0.0741935
1310 1 0.825 0.0872089 0.0836433
1311 1 0.825 0.0627911 0.0836433
52 2 0.875 0.025 0.0241935
53 1 0.875 0.0372089 0.0336433
54 1 0.875 0.0127911 0.0336433
1252 2 0.875 0.025 0.0741935
1253 1 0.875 0.0372089 0.0836433
1254 1 0.875 0.0127911 0.0836433
112 2 0.875 0.075 0.0241935
113 1 0.875 0.0872089 0.0336433
114 1 0.875 0.0627911 0.0336433
1312 2 0.875 0.075 0.0741935
1313 1 0.875 0.0872089 0.0836433
1314 1 0.875 0.0627911 0.0836433
55 2 0.925 0.025 0.0241935
56 1 0.925 0.0372089 0.0336433
57 1 0.925 0.0127911 0.0336433
1255 2 0.925 0.025 0.0741935
1256 1 0.925 0.0372089 0.0836433
1257 1 0.925 0.0127911 0.0836433
115 2 0.925 0.075 0.0241935
116 1 0.925 0.0872089 0.0336433
117 1 0.925 0.0627911 0.0336433
1315 2 0.925 0.075 0.0741935
1316 1 0.925 0.0872089 0.0836433
1317 1 0.925 0.0627911 0.0836433
58 2 0.975 0.025 0.0241935
59 1 0.975 0.0372089 0.0336433
60 1 0.975 0.0127911 0.0336433
1258 2 0.975 0.025 0.0741935
1259 1 0.975 0.0372089 0.0836433
1260 1 0.975 0.0127911 0.0836433
118 2 0.975 0.075 0.0241935
119 1 0.975 0.0872089 0.0336433
120 1 0.975 0.0627911 0.0336433
1318 2 0.975 0.075 0.0741935
1319 1 0.975 0.0872089 0.0836433
1320 1 0.975 0.0627911 0.0836433
121 2 0.025 0.125 0.0241935
122 1 0.025 0.137209 0.0336433
123 1 0.025 0.112791 0.0336433
1321 2 0.025 0.125 0.0741935
1322 1 0.025 0.137209 0.0836433
1323 1 0.025 0.112791 0.0836433
181 2 0.025 0.175 0.0241935
183 1 0.025 0.162791 0.0336433
1381 2 0.025 0.175 0.0741935
1383 1 0.025 0.162791 0.0836433
124 2 0.075 0.125 0.0241935
125 1 0.075 0.137209 0.0336433
126 1 0.075 0.112791 0.0336433
1324 2 0.075 0.125 0.0741935
1325 1 0.075 0.137209 0.0836433
1326 1 0.075 0.112791 0.0836433
184 2 0.075 0.175 0.0241935
186 1 0.075 0.162791 0.0336433
1384 2 0.075 0.175 0.0741935
1386 1 0.075 0.162791 0.0836433
127 2 0.125 0.125 0.0241935
128 1 0.125 0.137209 0.0336433
129 1 0.125 0.112791 0.0336433
1327 2 0.125 0.125 0.0741935
1328 1 0.125 0.137209 0.0836433
1329 1 0.125 0.112791 0.0836433
187 2 0.125 0.175 0.0241935
189 1 0.125 0.162791 0.0336433
1387 2 0.125 0.175 0.0741935
1389 1 0.125 0.162791 0.0836433
130 2 0.175 0.125 0.0241935
131 1 0.175 0.137209 0.0336433
132 1 0.175 0.112791 0.0336433
1330 2 0.175 0.125 0.0741935
1331 1 0.175 0.137209 0.0836433
1332 1 0.175 0.112791 0.0836433
190 2 0.175 0.175 0.0241935
192 1 0.175 0.162791 0.0336433
1390 2 0.175 0.175 0.0741935
1392 1 0.175 0.162791 0.0836433
133 2 0.225 0.125 0.0241935
134 1 0.225 0.137209 0.0336433
135 1 0.225 0.112791 0.0336433
1333 2 0.225 0.125 0.0741935
1334 1 0.225 0.137209 0.0836433
1335 1 0.225 0.112791 0.0836433
193 2 0.225 0.175 0.0241935
195 1 0.225 0.162791 0.0336433
1393 2 0.225 0.175 0.0741935
1395 1 0.225 0.162791 0.0836433
136 2 0.275 0.125 0.0241935
137 1 0.275 0.137209 0.0336433
138 1 0.275 0.112791 0.0336433
1336 2 0.275 0.125 0.0741935
1337 1 0.275 0.137209 0.0836433
1338 1 0.275 0.112791 0.0836433
196 2 0.275 0.175 0.0241935
198 1 0.275 0.162791 0.0336433
1396 2 0.275 0.175 0.0741935
1398 1 0.275 0.162791 0.0836433
139 2 0.325 0.125 0.0241935
140 1 0.325 0.137209 0.0336433
141 1 0.325 0.112791 0.0336433
1339 2 0.325 0.125 0.0741935
1340 1 0.325 0.137209 0.0836433
1341 1 0.325 0.112791 0.0836433
199 2 0.325 0.175 0.0241935
201 1 0.325 0.162791 0.0336433
1399 2 0.325 0.175 0.0741935
1401 1 0.325 0.162791 0.0836433
142 2 0.375 0.125 0.0241935
143 1 0.375 0.137209 0.0336433
144 1 0.375 0.112791 0.0336433
1342 2 0.375 0.125 0.0741935
1343 1 0.375 0.137209 0.0836433
1344 1 0.375 0.112791 0.0836433
202 2 0.375 0.175 0.0241935
204 1 0.375 0.162791 0.0336433
1402 2 0.375 0.175 0.0741935
1404 1 0.375 0.162791 0.0836433
145 2 0.425 0.125 0.0241935
146 1 0.425 0.137209 0.0336433
147 1 0.425 0.112791 0.0336433
1345 2 0.425 0.125 0.0741935
1346 1 0.425 0.137209 0.0836433
1347 1 0.425 0.112791 0.0836433
205 2 0.425 0.175 0.0241935
207 1 0.425 0.162791 0.0336433
1405 2 0.425 0.175 0.0741935
1407 1 0.425 0.162791 0.0836433
148 2 0.475 0.125 0.0241935
149 1 0.475 0.137209 0.0336433
150 1 0.475 0.112791 0.0336433
1348 2 0.475 0.125 0.0741935
1349 1 0.475 0.137209 0.0836433
1350 1 0.475 0.112791 0.0836433
208 2 0.475 0.175 0.0241935
210 1 0.475 0.162791 0.0336433
1408 2 0.475 0.175 0.0741935
1410 1 0.475 0.162791 0.0836433
151 2 0.525 0.125 0.0241935
152 1 0.525 0.137209 0.0336433
153 1 0.525 0.112791 0.0336433
1351 2 0.525 0.125 0.0741935
1352 1 0.525 0.137209 0.0836433
1353 1 0.525 0.112791 0.0836433
211 2 0.525 0.175 0.0241935
213 1 0.525 0.162791 0.0336433
1411 2 0.525 0.175 0.0741935
1413 1 0.525 0.162791 0.0836433
154 2 0.575 0.125 0.0241935
155 1 0.575 0.137209 0.0336433
156 1 0.575 0.112791 0.0336433
1354 2 0.575 0.125 0.0741935
1355 1 0.575 0.137209 0.0836433
1356 1 0.575 0.112791 0.0836433
214 2 0.575 0.175 0.0241935
216 1 0.575 0.162791 0.0336433
1414 2 0.575 0.175 0.0741935
1416 1 0.575 0.162791 0.0836433
157 2 0.625 0.125 0.0241935
158 1 0.625 0.137209 0.0336433
159 1 0.625 0.112791 0.0336433
1357 2 0.625 0.125 0.0741935
1358 1 0.625 0.137209 0.0836433
1359 1 0.625 0.112791 0.0836433
217 2 0.625 0.175 0.0241935
219 1 0.625 0.162791 0.0336433
1417 2 0.625 0.175 0.0741935
1419 1 0.625 0.162791 0.0836433
160 2 0.675 0.125 0.0241935
161 1 0.675 0.137209 0.0336433
162 1 0.675 0.112791 0.0336433
1360 2 0.675 0.125 0.0741935
1361 1 0.675 0.137209 0.0836433
1362 1 0.675 0.112791 0.0836433
220 2 0.675 0.175 0.0241935
222 1 0.675 0.162791 0.0336433
1420 2 0.675 0.175 0.0741935
1422 1 0.675 0.162791 0.0836433
163 2 0.725 0.125 0.0241935
164 1 0.725 0.137209 0.0336433
165 1 0.725 0.112791 0.0336433
1363 2 0.725 0.125 0.0741935
1364 1 0.725 0.137209 0.0836433
1365 1 0.725 0.112791 0.0836433
223 2 0.725 0.175 0.0241935
225 1 0.725 0.162791 0.0336433
1423 2 0.725 0.175 0.0741935
1425 1 0.725 0.162791 0.0836433
166 2 0.775 0.125 0.0241935
167 1 0.775 0.137209 0.0336433
168 1 0.775 0.112791 0.0336433
1366 2 0.775 0.125 0.0741935
1367 1 0.775 0.137209 0.0836433
1368 1 0.775 0.112791 0.0836433
226 2 0.775 0.175 0.0241935
228 1 0.775 0.162791 0.0336433
1426 2 0.775 0.175 0.0741935
1428 1 0.775 0.162791 0.0836433
169 2 0.825 0.125 0.0241935
170 1 0.825 0.137209 0.0336433
171 1 0.825 0.112791 0.0336433
1369 2 0.825 0.125 0.0741935
1370 1 0.825 0.137209 0.0836433
1371 1 0.825 0.112791 0.0836433
229 2 0.825 0.175 0.0241935
231 1 0.825 0.162791 0.0336433
1429 2 0.825 0.175 0.0741935
1431 1 0.825 0.162791 0.0836433
172 2 0.875 0.125 0.0241935
173 1 0.875 0.137209 0.0336433
174 1 0.875 0.112791 0.0336433
1372 2 0.875 0.125 0.0741935
1373 1 0.875 0.137209 0.0836433
1374 1 0.875 0.112791 0.0836433
232 2 0.875 0.175 0.0241935
234 1 0.875 0.162791 0.0336433
1432 2 0.875 0.175 0.0741935
1434 1 0.875 0.162791 0.0836433
175 2 0.925 0.125 0.0241935
176 1 0.925 0.137209 0.0336433
177 1 0.925 0.112791 0.0336433
1375 2 0.925 0.125 0.0741935
1376 1 0.925 0.137209 0.0836433
1377 1 0.925 0.112791 0.0836433
235 2 0.925 0.175 0.0241935
237 1 0.925 0.162791 0.0336433
1435 2 0.925 0.175 0.0741935
1437 1 0.925 0.162791 0.0836433
178 2 0.975 0.125 0.0241935
179 1 0.975 0.137209 0.0336433
180 1 0.975 0.112791 0.0336433
1378 2 0.975 0.125 0.0741935
1379 1 0.975 0.137209 0.0836433
1380 1 0.975 0.112791 0.0836433
238 2 0.975 0.175 0.0241935
240 1 0.975 0.162791 0.0336433
1438 2 0.975 0.175 0.0741935
1440 1 0.975 0.162791 0.0836433
182 1 0.025 0.187209 0.0336433
1382 1 0.025 0.187209 0.0836433
241 2 0.025 0.225 0.0241935
242 1 0.025 0.237209 0.0336433
243 1 0.025 0.212791 0.0336433
1441 2 0.025 0.225 0.0741935
1442 1 0.025 0.237209 0.0836433
1443 1 0.025 0.212791 0.0836433
303 1 0.025 0.262791 0.0336433
1503 1 0.025 0.262791 0.0836433
185 1 0.075 0.187209 0.0336433
1385 1 0.075 0.187209 0.0836433
244 2 0.075 0.225 0.0241935
245 1 0.075 0.237209 0.0336433
246 1 0.075 0.212791 0.0336433
1444 2 0.075 0.225 0.0741935
1445 1 0.075 0.237209 0.0836433
1446 1 0.075 0.212791 0.0836433
306 1 0.075 0.262791 0.0336433
1506 1 0.075 0.262791 0.0836433
188 1 0.125 0.187209 0.0336433
1388 1 0.125 0.187209 0.0836433
247 2 0.125 0.225 0.0241935
248 1 0.125 0.237209 0.0336433
249 1 0.125 0.212791 0.0336433
1447 2 0.125 0.225 0.0741935
1448 1 0.125 0.237209 0.0836433
1449 1 0.125 0.212791 0.0836433
309 1 0.125 0.262791 0.0336433
1509 1 0.125 0.262791 0.0836433
191 1 0.175 0.187209 0.0336433
1391 1 0.175 0.187209 0.0836433
250 2 0.175 0.225 0.0241935
251 1 0.175 0.237209 0.0336433
252 1 0.175 0.212791 0.0336433
1450 2 0.175 0.225 0.0741935
1451 1 0.175 0.237209 0.0836433
1452 1 0.175 0.212791 0.0836433
312 1 0.175 0.262791 0.0336433
1512 1 0.175 0.262791 0.0836433
194 1 0.225 0.187209 0.0336433
1394 1 0.225 0.187209 0.0836433
253 2 0.225 0.225 0.0241935
254 1 0.225 0.237209 0.0336433
255 1 0.225 0.212791 0.0336433
1453 2 0.225 0.225 0.0741935
1454 1 0.225 0.237209 0.0836433
1455 1 0.225 0.212791 0.0836433
315 1 0.225 0.262791 0.0336433
1515 1 0.225 0.262791 0.0836433
197 1 0.275 0.187209 0.0336433
1397 1 0.275 0.187209 0.0836433
256 2 0.275 0.225 0.0241935
257 1 0.275 0.237209 0.0336433
258 1 0.275 0.212791 0.0336433
1456 2 0.275 0.225 0.0741935
1457 1 0.275 0.237209 0.0836433
1458 1 0.275 0.212791 0.0836433
318 1 0.275 0.262791 0.0336433
1518 1 0.275 0.262791 0.0836433
200 1 0.325 0.187209 0.0336433
1400 1 0.325 0.187209 0.0836433
259 2 0.325 0.225 0.0241935
260 1 0.325 0.237209 0.0336433
261 1 0.325 0.212791 0.0336433
1459 2 0.325 0.225 0.0741935
1460 1 0.325 0.237209 0.0836433
1461 1 0.325 0.212791 0.0836433
321 1 0.325 0.262791 0.0336433
1521 1 0.325 0.262791 0.0836433
203 1 0.375 0.187209 0.0336433
1403 1 0.375 0.187209 0.0836433
262 2 0.375 0.225 0.0241935
263 1 0.375 0.237209 0.0336433
264 1 0.375 0.212791 0.0336433
1462 2 0.375 0.225 0.0741935
1463 1 0.375 0.237209 0.0836433
1464 1 0.375 0.212791 0.0836433
324 1 0.375 0.262791 0.0336433
1524 1 0.375 0.262791 0.0836433
206 1 0.425 0.187209 0.0336433
1406 1 0.425 0.187209 0.0836433
265 2 0.425 0.225 0.0241935
266 1 0.425 0.237209 0.0336433
267 1 0.425 0.212791 0.0336433
1465 2 0.425 0.225 0.0741935
1466 1 0.425 0.237209 0.0836433
1467 1 0.425 0.212791 0.0836433
327 1 0.425 0.262791 0.0336433
1527 1 0.425 0.262791 0.0836433
209 1 0.475 0.187209 0.0336433
1409 1 0.475 0.187209 0.0836433
268 2 0.475 0.225 0.0241935
269 1 0.475 0.237209 0.0336433
270 1 0.475 0.212791 0.0336433
1468 2 0.475 0.225 0.0741935
1469 1 0.475 0.237209 0.0836433
1470 1 0.475 0.212791 0.0836433
330 1 0.475 0.262791 0.0336433
1530 1 0.475 0.262791 0.0836433
212 1 0.525 0.187209 0.0336433
1412 1 0.525 0.187209 0.0836433
271 2 0.525 0.225 0.0241935
272 1 0.525 0.237209 0.0336433
273 1 0.525 0.212791 0.0336433
1471 2 0.525 0.225 0.0741935
1472 1 0.525 0.237209 0.0836433
1473 1 0.525 0.212791 0.0836433
333 1 0.525 0.262791 0.0336433
1533 1 0.525 0.262791 0.0836433
215 1 0.575 0.187209 0.0336433
1415 1 0.575 0.187209 0.0836433
274 2 0.575 0.225 0.0241935
275 1 0.575 0.237209 0.0336433
276 1 0.575 0.212791 0.0336433
1474 2 0.575 0.225 0.0741935
1475 1 0.575 0.237209 0.0836433
1476 1 0.575 0.212791 0.0836433
336 1 0.575 0.262791 0.0336433
1536 1 0.575 0.262791 0.0836433
218 1 0.625 0.187209 0.0336433
1418 1 0.625 0.187209 0.0836433
277 2 0.625 0.225 0.0241935
278 1 0.625 0.237209 0.0336433
279 1 0.625 0.212791 0.0336433
1477 2 0.625 0.225 0.0741935
1478 1 0.625 0.237209 0.0836433
1479 1 0.625 0.212791 0.0836433
339 1 0.625 0.262791 0.0336433
1539 1 0.625 0.262791 0.0836433
221 1 0.675 0.187209 0.0336433
1421 1 0.675 0.187209 0.0836433
280 2 0.675 0.225 0.0241935
281 1 0.675 0.237209 0.0336433
282 1 0.675 0.212791 0.0336433
1480 2 0.675 0.225 0.0741935
1481 1 0.675 0.237209 0.0836433
1482 1 0.675 0.212791 0.0836433
342 1 0.675 0.262791 0.0336433
1542 1 0.675 0.262791 0.0836433
224 1 0.725 0.187209 0.0336433
1424 1 0.725 0.187209 0.0836433
283 2 0.725 0.225 0.0241935
284 1 0.725 0.237209 0.0336433
285 1 0.725 0.212791 0.0336433
1483 2 0.725 0.225 0.0741935
1484 1 0.725 0.237209 0.0836433
1485 1 0.725 0.212791 0.0836433
345 1 0.725 0.262791 0.0336433
1545 1 0.725 0.262791 0.0836433
227 1 0.775 0.187209 0.0336433
1427 1 0.775 0.187209 0.0836433
286 2 0.775 0.225 0.0241935
287 1 0.775 0.237209 0.0336433
288 1 0.775 0.212791 0.0336433
1486 2 0.775 0.225 0.0741935
1487 1 0.775 0.237209 0.0836433
1488 1 0.775 0.212791 0.0836433
348 1 0.775 0.262791 0.0336433
1548 1 0.775 0.262791 0.0836433
230 1 0.825 0.187209 0.0336433
1430 1 0.825 0.187209 0.0836433
289 2 0.825 0.225 0.0241935
290 1 0.825 0.237209 0.0336433
291 1 0.825 0.212791 0.0336433
1489 2 0.825 0.225 0.0741935
1490 1 0.825 0.237209 0.0836433
1491 1 0.825 0.212791 0.0836433
351 1 0.825 0.262791 0.0336433
1551 1 0.825 0.262791 0.0836433
233 1 0.875 0.187209 0.0336433
1433 1 0.875 0.187209 0.0836433
292 2 0.875 0.225 0.0241935
293 1 0.875 0.237209 0.0336433
294 1 0.875 0.212791 0.0336433
1492 2 0.875 0.225 0.0741935
1493 1 0.875 0.237209 0.0836433
1494 1 0.875 0.212791 0.0836433
354 1 0.875 0.262791 0.0336433
1554 1 0.875 0.262791 0.0836433
236 1 0.925 0.187209 0.0336433
1436 1 0.925 0.187209 0.0836433
295 2 0.925 0.225 0.0241935
296 1 0.925 0.237209 0.0336433
297 1 0.925 0.212791 0.0336433
1495 2 0.925 0.225 0.0741935
1496 1 0.925 0.237209 0.0836433
1497 1 0.925 0.212791 0.0836433
357 1 0.925 0.262791 0.0336433
1557 1 0.925 0.262791 0.0836433
239 1 0.975 0.187209 0.0336433
1439 1 0.975 0.187209 0.0836433
298 2 0.975 0.225 0.0241935
299 1 0.975 0.237209 0.0336433
300 1 0.975 0.212791 0.0336433
1498 2 0.975 0.225 0.0741935
1499 1 0.975 0.237209 0.0836433
1500 1 0.975 0.212791 0.0836433
360 1 0.975 0.262791 0.0336433
1560 1 0.975 0.262791 0.0836433
301 2 0.025 0.275 0.0241935
302 1 0.025 0.287209 0.0336433
1501 2 0.025 0.275 0.0741935
1502 1 0.025 0.287209 0.0836433
361 2 0.025 0.325 0.0241935
362 1 0.025 0.337209 0.0336433
363 1 0.025 0.312791 0.0336433
1561 2 0.025 0.325 0.0741935
1562 1 0.025 0.337209 0.0836433
1563 1 0.025 0.312791 0.0836433
423 1 0.025 0.362791 0.0336433
1623 1 0.025 0.362791 0.0836433
304 2 0.075 0.275 0.0241935
305 1 0.075 0.287209 0.0336433
1504 2 0.075 0.275 0.0741935
1505 1 0.075 0.287209 0.0836433
364 2 0.075 0.325 0.0241935
365 1 0.075 0.337209 0.0336433
366 1 0.075 0.312791 0.0336433
1564 2 0.075 0.325 0.0741935
1565 1 0.075 0.337209 0.0836433
1566 1 0.075 0.312791 0.0836433
426 1 0.075 0.362791 0.0336433
1626 1 0.075 0.362791 0.0836433
307 2 0.125 0.275 0.0241935
308 1 0.125 0.287209 0.0336433
1507 2 0.125 0.275 0.0741935
1508 1 0.125 0.287209 0.0836433
367 2 0.125 0.325 0.0241935
368 1 0.125 0.337209 0.0336433
369 1 0.125 0.312791 0.0336433
1567 2 0.125 0.325 0.0741935
1568 1 0.125 0.337209 0.0836433
1569 1 0.125 0.312791 0.0836433
429 1 0.125 0.362791 0.0336433
1629 1 0.125 0.362791 0.0836433
310 2 0.175 0.275 0.0241935
311 1 0.175 0.287209 0.0336433
1510 2 0.175 0.275 0.0741935
1511 1 0.175 0.287209 0.0836433
370 2 0.175 0.325 0.0241935
371 1 0.175 0.337209 0.0336433
372 1 0.175 0.312791 0.0336433
1570 2 0.175 0.325 0.0741935
1571 1 0.175 0.337209 0.0836433
1572 1 0.175 0.312791 0.0836433
432 1 0.175 0.362791 0.0336433
1632 1 0.175 0.362791 0.0836433
313 2 0.225 0.275 0.0241935
314 1 0.225 0.287209 0.0336433
1513 2 0.225 0.275 0.0741935
1514 1 0.225 0.287209 0.0836433
373 2 0.225 0.325 0.0241935
374 1 0.225 0.337209 0.0336433
375 1 0.225 0.312791 0.0336433
1573 2 0.225 0.325 0.0741935
1574 1 0.225 0.337209 0.0836433
1575 1 0.225 0.312791 0.0836433
435 1 0.225 0.362791 0.0336433
1635 1 0.225 0.362791 0.0836433
316 2 0.275 0.275 0.0241935
317 1 0.275 0.287209 0.0336433
1516 2 0.275 0.275 0.0741935
1517 1 0.275 0.287209 0.0836433
376 2 0.275 0.325 0.0241935
377 1 0.275 0.337209 0.0336433
378 1 0.275 0.312791 0.0336433
1576 2 0.275 0.325 0.0741935
1577 1 0.275 0.337209 0.0836433
1578 1 0.275 0.312791 0.0836433
438 1 0.275 0.362791 0.0336433
1638 1 0.275 0.362791 0.0836433
319 2 0.325 0.275 0.0241935
320 1 0.325 0.287209 0.0336433
1519 2 0.325 0.275 0.0741935
1520 1 0.325 0.287209 0.0836433
379 2 0.325 0.325 0.0241935
380 1 0.325 0.337209 0.0336433
381 1 0.325 0.312791 0.0336433
1579 2 0.325 0.325 0.0741935
1580 1 0.325 0.337209 0.0836433
1581 1 0.325 0.312791 0.0836433
441 1 0.325 0.362791 0.0336433
1641 1 0.325 0.362791 0.0836433
322 2 0.375 0.275 0.0241935
323 1 0.375 0.287209 0.0336433
1522 2 0.375 0.275 0.0741935
1523 1 0.375 0.287209 0.0836433
382 2 0.375 0.325 0.0241935
383 1 0.375 0.337209 0.0336433
384 1 0.375 0.312791 0.0336433
1582 2 0.375 0.325 0.0741935
1583 1 0.375 0.337209 0.0836433
1584 1 0.375 0.312791 0.0836433
444 1 0.375 0.362791 0.0336433
1644 1 0.375 0.362791 0.0836433
325 2 0.425 0.275 0.0241935
326 1 0.425 0.287209 0.0336433
1525 2 0.425 0.275 0.0741935
1526 1 0.425 0.287209 0.0836433
385 2 0.425 0.325 0.0241935
386 1 0.425 0.337209 0.0336433
387 1 0.425 0.312791 0.0336433
1585 2 0.425 0.325 0.0741935
1586 1 0.425 0.337209 0.0836433
1587 1 0.425 0.312791 0.0836433
447 1 0.425 0.362791 0.0336433
1647 1 0.425 0.362791 0.0836433
328 2 0.475 0.275 0.0241935
329 1 0.475 0.287209 0.0336433
1528 2 0.475 0.275 0.0741935
1529 1 0.475 0.287209 0.0836433
388 2 0.475 0.325 0.0241935
389 1 0.475 0.337209 0.0336433
390 1 0.475 0.312791 0.0336433
1588 2 0.475 0.325 0.0741935
1589 1 0.475 0.337209 0.0836433
1590 1 0.475 0.312791 0.0836433
450 1 0.475 0.362791 0.0336433
1650 1 0.475 0.362791 0.0836433
331 2 0.525 0.275 0.0241935
332 1 0.525 0.287209 0.0336433
1531 2 0.525 0.275 0.0741935
1532 1 0.525 0.287209 0.0836433
391 2 0.525 0.325 0.0241935
392 1 0.525 0.337209 0.0336433
393 1 0.525 0.312791 0.0336433
1591 2 0.525 0.325 0.0741935
1592 1 0.525 0.337209 0.0836433
1593 1 0.525 0.312791 0.0836433
453 1 0.525 0.362791 0.0336433
1653 1 0.525 0.362791 0.0836433
334 2 0.575 0.275 0.0241935
335 1 0.575 0.287209 0.0336433
1534 2 0.575 0.275 0.0741935
1535 1 0.575 0.287209 0.0836433
394 2 0.575 0.325 0.0241935
395 1 0.575 0.337209 0.0336433
396 1 0.575 0.312791 0.0336433
1594 2 0.575 0.325 0.0741935
1595 1 0.575 0.337209 0.0836433
1596 1 0.575 0.312791 0.0836433
456 1 0.575 0.362791 0.0336433
1656 1 0.575 0.362791 0.0836433
337 2 0.625 0.275 0.0241935
338 1 0.625 0.287209 0.0336433
1537 2 0.625 0.275 0.0741935
1538 1 0.625 0.287209 0.0836433
397 2 0.625 0.325 0.0241935
398 1 0.625 0.337209 0.0336433
399 1 0.625 0.312791 0.0336433
1597 2 0.625 0.325 0.0741935
1598 1 0.625 0.337209 0.0836433
1599 1 0.625 0.312791 0.0836433
459 1 0.625 0.362791 0.0336433
1659 1 0.625 0.362791 0.0836433
340 2 0.675 0.275 0.0241935
341 1 0.675 0.287209 0.0336433
1540 2 0.675 0.275 0.0741935
1541 1 0.675 0.287209 0.0836433
400 2 0.675 0.325 0.0241935
401 1 0.675 0.337209 0.0336433
402 1 0.675 0.312791 0.0336433
1600 2 0.675 0.325 0.0741935
1601 1 0.675 0.337209 0.0836433
1602 1 0.675 0.312791 0.0836433
462 1 0.675 0.362791 0.0336433
1662 1 0.675 0.362791 0.0836433
343 2 0.725 0.275 0.0241935
344 1 0.725 0.287209 0.0336433
1543 2 0.725 0.275 0.0741935
1544 1 0.725 0.287209 0.0836433
403 2 0.725 0.325 0.0241935
404 1 0.725 0.337209 0.0336433
405 1 0.725 0.312791 0.0336433
1603 2 0.725 0.325 0.0741935
1604 1 0.725 0.337209 0.0836433
1605 1 0.725 0.312791 0.0836433
465 1 0.725 0.362791 0.0336433
1665 1 0.725 0.362791 0.0836433
346 2 0.775 0.275 0.0241935
347 1 0.775 0.287209 0.0336433
1546 2 0.775 0.275 0.0741935
1547 1 0.775 0.287209 0.0836433
406 2 0.775 0.325 0.0241935
407 1 0.775 0.337209 0.0336433
408 1 0.775 0.312791 0.0336433
1606 2 0.775 0.325 0.0741935
1607 1 0.775 0.337209 0.0836433
1608 1 0.775 0.312791 0.0836433
468 1 0.775 0.362791 0.0336433
1668 1 0.775 0.362791 0.0836433
349 2 0.825 0.275 0.0241935
350 1 0.825 0.287209 0.0336433
1549 2 0.825 0.275 0.0741935
1550 1 0.825 0.287209 0.0836433
409 2 0.825 0.325 0.0241935
410 1 0.825 0.337209 0.0336433
411 1 0.825 0.312791 0.0336433
1609 2 0.825 0.325 0.0741935
1610 1 0.825 0.337209 0.0836433
1611 1 0.825 0.312791 0.0836433
471 1 0.825 0.362791 0.0336433
1671 1 0.825 0.362791 0.0836433
352 2 0.875 0.275 0.0241935
353 1 0.875 0.287209 0.0336433
1552 2 0.875 0.275 0.0741935
1553 1 0.875 0.287209 0.0836433
412 2 0.875 0.325 0.0241935
413 1 0.875 0.337209 0.0336433
414 1 0.875 0.312791 0.0336433
1612 2 0.875 0.325 0.0741935
1613 1 0.875 0.337209 0.0836433
1614 1 0.875 0.312791 0.0836433
474 1 0.875 0.362791 0.0336433
1674 1 0.875 0.362791 0.0836433
355 2 0.925 0.275 0.0241935
356 1 0.925 0.287209 0.0336433
1555 2 0.925 0.275 0.0741935
1556 1 0.925 0.287209 0.0836433
415 2 0.925 0.325 0.0241935
416 1 0.925 0.337209 0.0336433
417 1 0.925 0.312791 0.0336433
1615 2 0.925 0.325 0.0741935
1616 1 0.925 0.337209 0.0836433
1617 1 0.925 0.312791 0.0836433
477 1 0.925 0.362791 0.0336433
1677 1 0.925 0.362791 0.0836433
358 2 0.975 0.275 0.0241935
359 1 0.975 0.287209 0.0336433
1558 2 0.975 0.275 0.0741935
1559 1 0.975 0.287209 0.0836433
418 2 0.975 0.325 0.0241935
419 1 0.975 0.337209 0.0336433
420 1 0.975 0.312791 0.0336433
1618 2 0.975 0.325 0.0741935
1619 1 0.975 0.337209 0.0836433
1620 1 0.975 0.312791 0.0836433
480 1 0.975 0.362791 0.0336433
1680 1 0.975 0.362791 0.0836433
421 2 0.025 0.375 0.0241935
422 1 0.025 0.387209 0.0336433
1621 2 0.025 0.375 0.0741935
1622 1 0.025 0.387209 0.0836433
481 2 0.025 0.425 0.0241935
482 1 0.025 0.437209 0.0336433
483 1 0.025 0.412791 0.0336433
1681 2 0.025 0.425 0.0741935
1682 1 0.025 0.437209 0.0836433
1683 1 0.025 0.412791 0.0836433
424 2 0.075 0.375 0.0241935
425 1 0.075 0.387209 0.0336433
1624 2 0.075 0.375 0.0741935
1625 1 0.075 0.387209 0.0836433
484 2 0.075 0.425 0.0241935
485 1 0.075 0.437209 0.0336433
486 1 0.075 0.412791 0.0336433
1684 2 0.075 0.425 0.0741935
1685 1 0.075 0.437209 0.0836433
1686 1 0.075 0.412791 0.0836433
427 2 0.125 0.375 0.0241935
428 1 0.125 0.387209 0.0336433
1627 2 0.125 0.375 0.0741935
1628 1 0.125 0.387209 0.0836433
487 2 0.125 0.425 0.0241935
488 1 0.125 0.437209 0.0336433
489 1 0.125 0.412791 0.0336433
1687 2 0.125 0.425 0.0741935
1688 1 0.125 0.437209 0.0836433
1689 1 0.125 0.412791 0.0836433
430 2 0.175 0.375 0.0241935
431 1 0.175 0.387209 0.0336433
1630 2 0.175 0.375 0.0741935
1631 1 0.175 0.387209 0.0836433
490 2 0.175 0.425 0.0241935
491 1 0.175 0.437209 0.0336433
492 1 0.175 0.412791 0.0336433
1690 2 0.175 0.425 0.0741935
1691 1 0.175 0.437209 0.0836433
1692 1 0.175 0.412791 0.0836433
433 2 0.225 0.375 0.0241935
434 1 0.225 0.387209 0.0336433
1633 2 0.225 0.375 0.0741935
1634 1 0.225 0.387209 0.0836433
493 2 0.225 0.425 0.0241935
494 1 0.225 0.437209 0.0336433
495 1 0.225 0.412791 0.0336433
1693 2 0.225 0.425 0.0741935
1694 1 0.225 0.437209 0.0836433
1695 1 0.225 0.412791 0.0836433
436 2 0.275 0.375 0.0241935
437 1 0.275 0.387209 0.0336433
1636 2 0.275 0.375 0.0741935
1637 1 0.275 0.387209 0.0836433
496 2 0.275 0.425 0.0241935
497 1 0.275 0.437209 0.0336433
498 1 0.275 0.412791 0.0336433
1696 2 0.275 0.425 0.0741935
1697 1 0.275 0.437209 0.0836433
1698 1 0.275 0.412791 0.0836433
439 2 0.325 0.375 0.0241935
440 1 0.325 0.387209 0.0336433
1639 2 0.325 0.375 0.0741935
1640 1 0.325 0.387209 0.0836433
499 2 0.325 0.425 0.0241935
500 1 0.325 0.437209 0.0336433
501 1 0.325 0.412791 0.0336433
1699 2 0.325 0.425 0.0741935
1700 1 0.325 0.437209 0.0836433
1701 1 0.325 0.412791 0.0836433
442 2 0.375 0.375 0.0241935
443 1 0.375 0.387209 0.0336433
1642 2 0.375 0.375 0.0741935
1643 1 0.375 0.387209 0.0836433
502 2 0.375 0.425 0.0241935
503 1 0.375 0.437209 0.0336433
504 1 0.375 0.412791 0.0336433
1702 2 0.375 0.425 0.0741935
1703 1 0.375 0.437209 0.0836433
1704 1 0.375 0.412791 0.0836433
445 2 0.425 0.375 0.0241935
446 1 0.425 0.387209 0.0336433
1645 2 0.425 0.375 0.0741935
1646 1 0.425 0.387209 0.0836433
505 2 0.425 0.425 0.0241935
506 1 0.425 0.437209 0.0336433
507 1 0.425 0.412791 0.0336433
1705 2 0.425 0.425 0.0741935
1706 1 0.425 0.437209 0.0836433
1707 1 0.425 0.412791 0.0836433
448 2 0.475 0.375 0.0241935
449 1 0.475 0.387209 0.0336433
1648 2 0.475 0.375 0.0741935